                               Psi4 1.2a1.dev508

  ==> Input File <==

--------------------------------------------------------------------------
sys.path.insert(0, './..')
import dsrgpt2_plug
print 'dasdasdadas' , dsrgpt2_plug.__file__

molecule h2o {
0 1
O
H 1 r
H 1 r 2 a

r=0.98944
a=100.047
}

pert = 0.001
lambdas = [pert, -pert, 2.0*pert, -2.0*pert]

set {
    basis        sto-3g
    e_convergence   10
    scf_type pk
}

energies = []
for l in lambdas:
    set perturb_h true
    set perturb_with dipole
    set perturb_dipole [0, 0, $l]
    energies.append(energy('dsrgpt2_plug'))

# Now use 3- and 5-point finite difference formulae to compute the dipole
dm_z_3point = (energies[0] - energies[1]) / (2.0*pert)
dm_z_5point = (8.0*energies[0] - 8.0*energies[1] - energies[2] + energies[3]) / (12.0*pert)

set perturb_h false
# Compute the analytic dipoles, for comparison
e,wfn = energy('dsrgpt2_plug', return_wfn=True)
oeprop(wfn, "MULTIPOLES(1)")
analytic = get_variable("DIPOLE Z")

# Tabulate the results of the energy computation
for val in range(len(lambdas)):
    print_out("Perturbation strength = %7.4f, computed energy = %16.10f\n" % (lambdas[val], energies[val]))

# The a.u. to Debye conversion factor is automatically available in Psithon as psi_dipmom_au2debye
print_out("Total dipoles\n")
print_out("3 Point formula: mu(z) = %10.6f ea0, %10.6f Debye\n" % (dm_z_3point, dm_z_3point*psi_dipmom_au2debye))
print_out("5 Point formula: mu(z) = %10.6f ea0, %10.6f Debye\n" % (dm_z_5point, dm_z_5point*psi_dipmom_au2debye))
--------------------------------------------------------------------------

    Molecular point group: c2v
  Charge       = 0
  Multiplicity = 1
  Basis Set: STO-3G
    Blend: STO-3G
  @RHF Final Energy:   -74.96523006182591 with 0.000000 0.000000 0.001000 perturbation
    Total Energy =                        -74.9652300618259062
    Molecular point group: c2v
  Basis Set: STO-3G
    Blend: STO-3G
  @RHF Final Energy:   -74.96657484388321 with 0.000000 0.000000 -0.001000 perturbation
    Total Energy =                        -74.9665748438832225
  Basis Set: STO-3G
    Blend: STO-3G
  @RHF Final Energy:   -74.96456152238497 with 0.000000 0.000000 0.002000 perturbation
    Total Energy =                        -74.9645615223849688
  Multiplicity = 1
  Basis Set: STO-3G
    Blend: STO-3G
  @RHF Final Energy:   -74.96725107827307 with 0.000000 0.000000 -0.002000 perturbation
    Total Energy =                        -74.9672510782730654
    Molecular point group: c2v

    Geometry (in Angstrom), charge = 0, multiplicity = 1:

       Center              X                  Y                   Z               Mass
    ------------   -----------------  -----------------  -----------------  -----------------
           O          0.000000000000     0.000000000000    -0.071143036192    15.994914619560
           H          0.000000000000    -0.758215806856     0.564545805801     1.007825032070
           H          0.000000000000     0.758215806856     0.564545805801     1.007825032070

  Charge       = 0
  Multiplicity = 1
  Basis Set: STO-3G
    Blend: STO-3G

    Orbital Energies (a.u.)
    -----------------------

    Doubly Occupied:

       1A1   -20.251557     2A1    -1.257513     1B2    -0.593875
       3A1    -0.459679     1B1    -0.392602

  @RHF Final Energy:   -74.96590117036534

   => Energetics <=

    Nuclear Repulsion Energy =              8.9061614944709540
    One-Electron Energy =                -121.8336714599090413
    Two-Electron Energy =                  37.9616087950727490
    Total Energy =                        -74.9659011703653420
 Dipole X            :          0.0000000            0.0000000            0.0000000
 Dipole Y            :          0.0000000           -0.0000000           -0.0000000
 Dipole Z            :         -0.3857554            1.0581471            0.6723917
*** Psi4 exiting successfully. Buy a developer a beer!
